<VTKFile type="UnstructuredGrid" version="0.1" byte_order="LittleEndian">
    <UnstructuredGrid>
        <Piece NumberOfPoints="32" NumberOfCells="9">
            <PointData>...</PointData>
            <CellData>
                <DataArray type="Int32" Name="MaterialID" format="ascii">
                    1
                    1
                    1
                    1
                    2
                    1
                    1
                    1
                    1
                </DataArray>
            </CellData>
            <Points>
                <DataArray NumberOfComponents="3" type="Float32" format="ascii" Name="nodes">
                    1.0 1.0 0.333333343
                    1.0 0.666666687 0.333333343
                    1.0 0.333333343 0.333333343
                    1.0 0.0 0.333333343
                    1.0 1.0 0.0
                    1.0 0.666666687 0.0
                    1.0 0.333333343 0.0
                    1.0 0.0 0.0
                    0.666666687 1.0 0.333333343
                    0.666666687 0.666666687 0.333333343
                    0.666666687 0.333333343 0.333333343
                    0.666666687 0.0 0.333333343
                    0.666666687 1.0 0.0
                    0.666666687 0.666666687 0.0
                    0.666666687 0.333333343 0.0
                    0.666666687 0.0 0.0
                    0.333333343 1.0 0.333333343
                    0.333333343 0.666666687 0.333333343
                    0.333333343 0.333333343 0.333333343
                    0.333333343 0.0 0.333333343
                    0.333333343 1.0 0.0
                    0.333333343 0.666666687 0.0
                    0.333333343 0.333333343 0.0
                    0.333333343 0.0 0.0
                    0.0 1.0 0.333333343
                    0.0 0.666666687 0.333333343
                    0.0 0.333333343 0.333333343
                    0.0 0.0 0.333333343
                    0.0 1.0 0.0
                    0.0 0.666666687 0.0
                    0.0 0.333333343 0.0
                    0.0 0.0 0.0
                </DataArray>
            </Points>
            <Cells>
                <DataArray Name="connectivity" type="Int32" format="ascii">
                    8 9 13 12 0 1 5 4
                    9 10 14 13 1 2 6 5
                    10 11 15 14 2 3 7 6
                    16 17 21 20 8 9 13 12
                    17 18 22 21 9 10 14 13
                    18 19 23 22 10 11 15 14
                    24 25 29 28 16 17 21 20
                    25 26 30 29 17 18 22 21
                    26 27 31 30 18 19 23 22                    
                </DataArray>
                <DataArray Name="offsets" type="Int32" format="ascii">
                    8 16 24 32 40 48 56 64 72
                    <!-- 8 16 24 32 40 48 56 64 72 -->
                </DataArray>
                <DataArray Name="types" type="UInt8" format="ascii">
                    12
                    12
                    12
                    12
                    12
                    12
                    12
                    12
                    12
                </DataArray>
            </Cells>
        </Piece>
    </UnstructuredGrid>
</VTKFile>